Sat Oct 16 15:35:02 CEST 1999
Mon Oct 18 11:55:03 CEST 1999
Mon Oct 18 16:15:01 CEST 1999
Mon Oct 18 16:40:05 CEST 1999
Mon Oct 18 16:50:05 CEST 1999
Mon Oct 18 16:55:03 CEST 1999
Mon Oct 18 17:15:02 CEST 1999
Mon Oct 18 17:40:03 CEST 1999
Mon Oct 18 17:45:05 CEST 1999
Mon Oct 18 17:55:03 CEST 1999
Tue Oct 19 09:00:05 CEST 1999
Tue Oct 19 09:05:03 CEST 1999
Tue Oct 19 09:55:04 CEST 1999
Tue Oct 19 19:40:03 CEST 1999
Tue Oct 19 19:45:03 CEST 1999
Wed Oct 20 08:27:18 CEST 1999
Wed Oct 20 09:10:01 CEST 1999
Thu Oct 21 11:10:01 CEST 1999
Fri Oct 22 21:05:01 CEST 1999
Mon Oct 25 12:30:01 CEST 1999
Tue Oct 26 17:45:01 CEST 1999
Wed Oct 27 11:25:01 CEST 1999
Wed Oct 27 13:05:01 CEST 1999
Thu Oct 28 15:25:05 CEST 1999
Thu Oct 28 19:30:00 CEST 1999
Fri Oct 29 19:05:00 CEST 1999
Mon Nov  1 11:14:17 CET 1999
Mon Nov  1 11:40:00 CET 1999
Tue Nov  9 09:10:01 CET 1999
Wed Nov 10 07:35:02 CET 1999
Wed Nov 10 18:25:01 CET 1999
Wed Nov 10 18:30:00 CET 1999
Wed Nov 10 18:45:00 CET 1999
Thu Nov 11 11:20:00 CET 1999
Thu Nov 11 20:15:00 CET 1999
Fri Nov 12 15:55:00 CET 1999
Fri Nov 12 17:00:01 CET 1999
Fri Nov 12 22:10:01 CET 1999
Tue Nov 16 19:31:22 CET 1999
Thu Dec 30 10:15:43 CET 1999
Thu Dec 30 10:16:41 CET 1999
Thu Dec 30 10:17:13 CET 1999
Thu Dec 30 10:20:05 CET 1999
Thu Dec 30 10:25:04 CET 1999
Thu Dec 30 19:45:04 CET 1999
Sun Jan  2 16:19:57 CET 2000
Sun Jan  2 16:25:07 CET 2000
Tue Jan  4 12:35:20 CET 2000
Wed Jan  5 09:55:04 CET 2000
